ITEM: TIMESTEP
112300
ITEM: NUMBER OF ATOMS
54872
ITEM: BOX BOUNDS pp pp pp
0.0000000000000000e+00 6.1255694252625844e+01
0.0000000000000000e+00 6.1255694252625844e+01
0.0000000000000000e+00 6.1255694252625844e+01
ITEM: ATOMS id x y z ix iy iz vx vy vz
7079 3.46832 2.13392 3.23095 0 0 1 -1.71946 0.173912 3.39151
11185 2.02257 4.68489 4.72171 0 1 0 -0.258487 -0.703788 0.631433
1225 6.01668 5.65853 3.44222 0 0 0 0.0215865 -0.47154 -0.642097
17996 2.14815 5.97787 3.01529 0 0 0 0.0550573 -0.255366 1.80656
54134 3.19156 4.14976 3.40802 1 1 1 0.0540876 1.91602 -0.349208
436 6.10121 2.47464 4.99469 0 0 0 -0.53027 -1.82602 1.93326
48263 4.16205 6.22809 1.99195 1 0 1 0.187219 -0.414653 0.825081
24587 4.28655 4.40299 2.16718 0 1 0 0.0341024 1.41909 -1.64768
699 0.975748 5.5976 1.849 0 0 0 0.489116 -0.991652 -0.424048
45545 6.36926 1.68152 7.37579 1 0 0 -1.5062 -0.294506 2.70469
42344 0.933048 2.04001 4.10835 1 0 0 0.394103 0.00701477 -1.29872
52575 4.19965 3.08107 6.51355 1 1 0 0.63011 0.110172 0.663637
14222 5.30638 2.22103 1.45507 0 1 1 0.134365 1.63563 0.211734
3403 1.60731 1.12684 5.50317 0 0 1 -1.12971 -1.0699 0.752354
54615 4.5743 4.94147 3.5117 1 1 1 -0.13425 -0.0945808 -0.195042
7620 3.97648 5.79443 6.56892 0 1 0 1.10268 -0.146383 0.296234
24793 6.06277 4.26686 4.48931 0 1 0 -1.01209 -0.709894 -1.26524
4307 2.60341 6.43148 4.92174 0 0 0 0.768788 2.3744 -0.211832
42331 4.10599 1.99377 1.5986 1 0 0 -0.375612 -0.688467 -1.61855
14147 5.90456 3.79081 2.758 0 1 1 -2.55976 1.35166 -1.10436
11363 2.43954 4.73793 2.1932 0 1 0 -0.7496 -2.06417 0.207956
7305 2.28109 1.18634 4.25003 0 1 0 0.307557 0.13425 -1.24469
11108 5.69909 5.93169 1.80052 0 1 0 0.576437 0.43538 1.10642
3369 6.28935 5.40796 7.3294 0 0 1 1.1233 1.31266 0.901347
44774 0.889783 4.15986 1.66415 1 0 1 0.738013 0.554526 0.687893
10595 3.39325 1.4804 6.01873 0 1 1 0.120792 0.886953 -0.594924
855 5.01935 6.8476 6.08175 0 0 0 0.01049 -0.379533 -0.0137858
977 5.01271 1.93133 7.05818 0 0 0 1.63272 0.951209 0.450451
44233 3.23981 3.15696 1.15207 1 0 1 -1.36985 -1.34869 -1.39384
44495 3.24487 7.36718 3.29929 1 0 1 0.643808 0.933257 0.0134587
42600 1.45674 1.52745 2.66385 1 0 0 1.21777 -0.513021 -1.10488
3754 3.95975 2.8409 4.61839 0 0 1 -0.0524583 0.0859978 1.87091
15460 2.24177 2.98618 2.53751 0 0 0 -0.888612 0.601903 1.09999
15250 3.77702 4.25459 5.24336 0 0 0 -1.67088 0.86684 -0.774787
138 6.46792 4.81933 1.1889 0 0 0 -0.581987 0.516774 1.57232
14560 0.949725 4.61241 3.54735 0 0 0 1.34468 0.864469 -1.49467
462 3.52527 5.69343 4.13481 0 0 0 0.843328 -1.02758 -0.421096
42899 1.46831 6.50373 7.52471 1 0 0 0.553339 -1.19527 1.61132
1735 7.56875 3.43928 4.55289 0 0 0 2.21001 0.982114 -1.06004
11524 2.83667 1.12655 1.64485 0 1 0 0.931892 0.115447 0.381952
18530 6.88094 6.95364 0.890029 0 0 0 -0.0437307 -0.522077 -0.505951
4271 6.19916 7.01658 4.31106 0 0 0 -0.358054 -0.338227 0.258874
19263 6.18651 1.78838 3.48485 0 0 0 2.58272 -1.04564 0.904449
15235 2.74347 3.4302 6.25362 0 0 0 1.67531 0.54965 -2.12159
6158 5.18945 3.78659 1.04316 0 0 1 0.445061 -1.68948 0.429207
15172 5.10921 4.88115 6.28885 0 0 0 -1.23489 -0.190913 -1.07204
11613 6.99012 7.11077 2.74217 0 1 0 -0.44754 -0.764087 0.414466
11768 3.29331 7.68159 1.89554 0 1 0 0.588187 2.4999 0.208134
24775 2.19488 2.43513 0.718205 0 1 0 0.708593 -1.81123 -0.693613
8314 3.46846 0.50948 3.93729 0 1 0 -0.236608 -1.52372 1.41212
48633 2.04955 0.138318 3.44009 1 1 0 0.483572 -1.12446 -0.807179
14927 1.21517 2.83304 5.56347 0 0 0 0.938597 -0.759112 -0.604596
275 5.37258 3.48406 5.85553 0 0 0 -1.52376 2.30212 -0.34456
35104 6.70996 1.63624 5.83607 0 1 0 0.792453 -0.682273 0.972477
48462 4.97492 1.5322 5.30585 1 1 0 1.0569 -0.0142259 1.33996
42794 2.10875 4.72998 5.93164 1 0 0 -0.325773 -1.36188 -2.96816
15147 4.04542 4.36922 7.56898 0 0 0 -0.896287 -0.77639 -0.688903
42713 4.97254 6.6013 3.35809 1 0 0 0.0807737 -0.0590932 1.43923
12065 6.88503 2.1365 2.12239 0 1 0 -1.14356 0.559564 0.955091
2830 5.39863 0.0141368 5.5814 0 0 1 -0.766531 -0.0469669 -0.344621
7613 0.460175 7.31413 3.22512 0 1 0 -0.0962942 -0.548277 0.697336
11993 5.04347 2.81961 3.22048 0 1 0 0.0569646 -0.526366 0.302008
942 6.92556 5.25332 5.38155 0 0 0 1.0817 -0.155661 0.0675144
31390 5.80134 6.91025 7.25197 0 0 0 0.69375 1.19099 0.150121
31789 0.754129 0.225473 4.08994 0 0 0 -1.21344 -0.749707 0.952924
3312 2.60131 6.2435 1.22876 0 0 1 -1.72708 0.818955 -0.909063
51877 6.94612 0.3166 4.86779 1 1 0 -0.329311 0.209567 0.599403
42187 1.65827 0.698963 0.768628 1 0 0 0.247804 -0.600906 -0.217452
14816 2.37405 2.9797 4.4318 0 0 0 -0.024405 -0.235022 -0.510657
14416 0.596933 2.88303 1.54508 0 1 1 -0.00724276 0.444798 -1.36585
10617 1.33004 6.9198 4.22775 0 1 1 0.820666 -1.34841 0.0939782
6453 0.928595 5.75384 4.84085 0 0 1 -0.834744 1.32125 -1.59967
6074 5.17331 5.79138 5.05491 0 0 1 -2.64038 1.05326 0.32645
24338 7.00646 6.51859 5.94637 0 1 1 -0.384746 -0.689401 -1.98063
12223 5.99619 0.817771 2.05182 0 1 0 0.867842 0.349439 -0.154451
31969 7.22308 4.54871 2.45991 0 0 0 0.319391 -0.505366 -0.755778
47776 0.0977096 3.4965 4.48507 1 0 1 -0.4663 -1.80578 -1.05562
471 6.62219 0.238735 6.6043 0 0 0 1.62612 -0.195406 0.149417
7659 3.6829 0.393635 6.4144 0 1 0 -0.849129 0.296399 0.536735
14975 2.33811 1.98158 6.86772 0 0 0 0.810691 -1.2611 -0.713531
4199 4.26561 5.45193 0.674672 0 0 0 0.297767 -0.141621 0.176356
14886 0.458247 0.653975 2.0261 0 0 0 0.247519 -1.60763 -0.668485
15105 6.5918 3.96233 6.2453 0 0 0 -1.6039 0.31741 -1.14907
3752 3.28638 7.30365 6.28586 0 0 1 0.461923 -0.852795 0.206954
236 5.29855 6.99046 0.697764 0 0 0 0.893366 -0.22655 0.634757
12 5.4071 0.779994 3.58059 0 0 0 0.19096 2.18405 1.47022
14835 2.88945 4.13846 0.79574 0 0 0 1.71312 0.0754594 0.135891
117 7.56428 2.07117 4.11623 0 0 0 0.209276 2.18647 0.650991
10500 0.05598 5.49742 6.82906 0 1 1 0.661233 1.24398 -0.721098
8414 0.432825 2.76902 7.39278 0 1 0 -1.0377 -0.84716 1.49065
40924 0.705537 1.71623 0.353791 1 1 1 -0.436089 -0.122495 0.485593
546 0.372324 3.0993 2.95248 0 0 0 -0.476527 -0.0362261 0.0532472
48351 1.13842 6.42025 0.155838 1 0 1 -0.42094 -1.01405 -1.56491
24739 7.44749 5.51198 3.54146 0 1 0 1.97221 0.66533 0.683471
1851 0.499425 0.267795 6.3827 0 0 0 0.15267 -0.738359 0.150956
3147 1.44466 6.69713 6.11623 0 0 1 0.364521 -1.70898 -0.472282
45034 7.17583 0.330953 2.88263 1 0 1 0.254003 -0.729511 -0.744458
6773 4.43601 0.218466 2.48875 0 0 1 -0.0188678 -0.721986 0.387384
48435 3.73674 0.938245 61.249 1 1 -1 -0.00847883 1.59761 -1.45088
2310 7.11855 3.45862 0.213805 0 0 1 -0.756982 0.638489 -0.91109
1913 7.65116 3.44267 3.20183 0 0 0 2.09848 -0.488139 0.0646713
25341 1.75514 4.67073 7.34717 0 1 0 -0.638183 0.205561 -0.192506
211 0.250935 7.27545 6.75705 0 0 0 -1.08798 0.683028 -0.661977
24035 6.19481 2.26149 0.0434699 0 1 1 -0.234233 0.731424 -0.247591
44936 7.61902 5.92032 1.82778 1 0 1 -0.0144547 -1.36555 0.965931
25347 7.09793 1.17331 0.726168 0 1 0 -0.684192 1.04973 1.12304
52016 1.32251 7.39734 1.70386 1 1 0 -0.202724 -2.0963 0.662584
42811 5.01889 0.302448 7.34265 1 0 0 2.79871 0.723774 -0.198741
52515 0.362358 4.11482 7.51935 1 1 0 1.09665 -0.0261655 -0.0931408
7272 9.96665 0.126293 7.01389 -1 1 0 -0.377898 0.712288 0.183159
27803 14.8756 1.74838 2.4374 0 0 0 -1.2856 -0.432015 -2.31215
42461 8.65739 5.19157 4.28098 1 0 0 1.25102 0.784905 0.945044
11688 8.02609 0.241515 5.8519 0 1 0 0.41285 -0.621578 1.30564
25458 8.7202 1.94909 5.32636 0 1 0 1.22048 1.28844 0.10221
13599 9.22822 0.505363 3.05562 0 1 1 1.39441 -0.986777 0.79536
41949 8.14057 6.74784 5.18599 1 0 0 -1.52555 -1.03576 -1.12543
3401 10.1855 1.45137 6.07848 0 0 1 0.870579 -1.44876 1.47689
39 14.0402 5.71333 1.44979 0 0 0 0.24437 0.210068 -1.82234
13990 7.8968 3.00416 1.41041 0 1 1 0.710074 0.628048 -0.00714914
7042 10.5263 2.76516 5.24671 0 0 1 -0.113095 1.67806 -1.49561
47946 8.00094 1.62832 6.7503 1 0 1 -0.896186 1.2019 -1.65285
45162 7.91406 3.04355 6.40437 1 0 1 -1.07654 -0.738046 0.813042
4182 13.6524 1.19274 3.94554 0 0 0 0.205223 -1.84909 -0.67011
836 8.55115 4.56293 5.4943 0 0 0 -0.39195 -0.385603 -0.473866
31077 12.134 3.2755 2.82581 0 0 1 -0.328387 -0.282949 -1.37278
56 10.0867 4.69688 1.26494 0 0 0 -0.922599 0.164534 0.177642
358 8.10044 1.41926 2.06086 0 0 0 -0.756298 -1.58487 0.607459
31561 10.0879 3.05471 0.829971 0 0 0 0.422594 0.73542 -0.522657
52050 8.79891 4.44259 2.33798 1 1 0 0.84076 0.0903901 -0.116084
42512 10.3825 5.81068 5.39836 1 0 0 -0.130382 0.292462 0.23397
20362 13.38 0.853803 2.35678 0 0 1 -1.11436 -1.093 -1.56604
27285 13.3065 6.7061 2.30165 0 1 1 -0.575173 1.12864 -0.550226
3037 10.6937 5.86431 2.57441 0 0 1 -0.297151 -0.565514 0.843074
20996 13.4085 4.03441 4.75728 0 1 0 2.36796 -0.437272 -0.896783
24782 11.8421 0.931488 4.79721 0 1 0 0.1826 0.393092 -0.246433
585 9.98992 7.37401 2.13945 0 0 0 0.516826 0.0524241 -0.878594
60 10.7712 1.47429 2.43953 0 0 0 0.493119 0.696961 0.567755
7380 11.9444 5.89706 1.0202 0 1 0 0.448616 -0.110426 0.768664
14055 9.50369 6.49975 4.11863 0 1 1 -0.903637 -0.4153 1.47655
3586 8.85933 2.30331 3.36988 0 0 1 0.283346 -0.563092 0.890093
48356 10.7704 6.51909 0.740428 1 1 1 0.565289 -0.472308 -0.226571
15847 11.299 2.50179 1.71467 0 0 0 -1.42847 -0.0169863 -0.566257
44865 11.8322 4.01861 4.98008 1 0 1 0.991729 -1.43948 -0.637229
25323 8.9194 6.2401 2.578 0 1 0 -0.421651 1.71558 -0.780951
10614 8.11912 4.81591 0.774745 0 1 1 -1.28512 -2.84355 -0.396524
31191 11.8796 2.28679 5.97478 0 0 1 -0.156928 -0.720061 -0.207568
17825 11.7886 6.49479 2.99962 0 0 1 0.386077 -1.23373 -1.84252
13270 13.5319 6.16024 0.182284 0 1 1 -0.640799 -0.758218 -0.730218
15081 10.4174 1.25178 4.27748 0 0 0 -0.641882 -0.886311 -0.391845
51232 9.63581 2.92129 2.07937 1 1 1 1.2093 0.448616 -0.756128
24593 13.1833 1.84292 5.46883 0 1 0 -0.405961 -1.28774 -0.406439
2951 10.4574 2.90539 3.90342 0 0 1 -1.05259 -0.376271 -0.292039
26123 13.6156 0.851545 6.63984 0 1 0 1.18723 0.990459 -0.117517
15111 10.6854 3.63811 2.83445 0 0 0 -0.410484 -1.55463 -1.69675
18269 12.1594 5.01884 3.40018 0 0 0 -1.55661 -0.932456 1.56873
15493 14.4334 4.23626 1.8695 0 0 0 1.85244 -0.749735 0.87519
1479 9.14832 3.64779 4.20487 0 0 0 -1.81126 0.143489 -0.840775
17716 14.2531 2.52292 5.04412 0 0 1 -0.499391 0.77389 0.703078
7242 14.3167 4.4826 3.37763 0 1 0 0.420796 -0.757722 0.334135
7496 13.1133 3.28111 0.943351 0 1 0 -1.33507 -0.949438 -1.60225
31741 14.1244 5.88547 5.43198 0 0 0 -0.296945 -1.0458 -0.730768
3686 13.0452 4.95325 2.22621 0 0 1 -0.610485 -0.106768 -0.0313206
18011 9.18186 5.92302 0.703096 0 0 0 1.02476 0.8833 0.268785
27040 12.1737 2.40872 4.28956 0 1 1 0.0847388 -1.6157 1.1307
10767 13.7425 5.77348 3.67929 0 0 1 0.748102 0.6217 1.01001
3502 12.274 5.40505 5.32697 0 0 1 0.713339 -0.968116 0.375746
11550 9.98957 4.18198 6.02697 0 1 0 -0.347414 0.493519 -0.439668
13585 13.4505 2.18792 2.06156 0 1 1 0.630892 -0.350769 -1.10997
14755 13.4776 3.00217 3.34715 0 0 0 -0.971773 1.95784 -1.62085
10502 14.9711 4.48851 4.83022 0 1 1 0.462497 1.2734 1.35942
14234 12.0855 1.32724 3.28245 0 1 1 -1.54741 -0.673398 -1.07103
25216 15.3124 5.62619 3.81596 0 1 0 0.323549 -1.10811 -1.13067
38990 10.4476 4.86197 3.85301 0 1 0 1.04914 0.0516613 -0.0198974
17737 14.2689 2.54873 0.387152 0 0 1 0.157329 -1.23734 0.500763
27286 9.43565 0.814355 1.15262 0 1 1 0.147765 1.26812 0.536371
18292 9.85269 5.20965 7.54184 0 0 0 0.509255 1.39585 1.12745
14212 11.8483 4.5282 1.80218 0 1 1 0.0829531 -1.61646 -0.105115
14505 11.8095 0.529736 6.61998 0 0 0 -0.829609 0.662286 -0.628594
15723 11.2777 5.38915 6.89832 0 0 0 -0.358582 -0.952984 0.698195
2016 12.2387 4.29581 6.18299 0 0 0 -0.836793 1.70398 -0.163576
1397 8.04326 5.89979 7.25555 0 0 0 -1.15558 0.444167 1.12276
42762 11.2516 6.67158 4.5327 1 0 0 -0.918168 1.49528 -0.600676
27267 9.97805 7.2623 5.41964 0 1 1 -0.302055 0.695872 -0.41873
11335 11.273 0.909728 1.31704 0 1 0 0.8546 0.356641 -0.580487
11365 15.0638 7.2255 4.20502 0 1 0 -0.678698 -0.325942 1.02394
50620 8.60573 3.09158 0.133474 1 1 1 -1.03939 -1.65137 0.436773
3988 9.09013 5.98991 6.29697 0 0 0 -1.56973 -2.00434 -0.564441
14151 12.6597 1.84716 0.782284 0 1 1 2.03862 1.73461 0.717101
11193 14.1726 3.9778 6.15605 0 1 0 1.49183 2.32654 -0.892264
14699 11.6627 1.67295 7.56302 0 0 0 2.25477 1.35707 1.5901
7268 14.3117 0.251695 4.82058 0 1 0 1.52857 -0.462078 0.119154
5410 12.9283 4.64891 7.61109 0 0 0 0.298756 -0.02574 2.13076
48752 9.40499 3.50757 7.36881 1 0 0 0.595922 -0.362793 0.0302364
14930 11.4842 7.15798 6.07301 0 0 0 0.980759 -0.305601 0.699337
26994 14.1717 5.97587 7.29475 0 1 1 0.667642 0.606337 -0.417114
12095 11.1698 3.11275 7.46609 0 1 0 0.74453 -0.761463 0.392701
25234 14.5863 0.114098 1.65163 0 1 0 -0.222635 -0.287116 -0.975473
21269 11.7452 3.40012 0.411437 0 1 0 -0.613947 1.10015 0.599728
27251 14.3022 2.038 7.04573 0 1 1 -0.0590763 -1.31481 0.0705802
45258 12.8808 6.31572 6.38948 1 0 1 -2.43363 1.7669 -0.800398
14692 14.812 7.48378 6.82903 0 0 0 -0.298891 0.910349 -1.58149
39355 12.6945 4.433 0.126448 0 1 0 -0.0687349 -2.68876 0.108015
483 14.6213 7.36341 2.56489 0 0 0 0.851642 -0.948892 1.31689
18193 12.1055 7.64003 2.09155 0 0 0 0.145469 1.86547 -0.783984
53009 8.69095 0.677944 4.196 1 1 0 -1.29108 1.17399 -2.30522
38700 14.7241 0.66361 0.0475054 0 1 0 -0.450506 0.110675 -0.133206
39329 13.0195 6.88855 4.76318 0 1 0 0.221821 -0.852853 -1.36917
17793 9.76805 7.24911 0.0146188 0 0 1 -0.0507535 -1.38537 -1.38387
2747 12.8441 2.9615 7.12975 0 0 1 0.730371 -0.459914 -1.01323
42965 10.2778 6.57715 7.29696 1 0 0 -1.32795 0.576576 -0.398122
14558 8.60146 0.649426 7.58056 0 0 0 0.95198 0.406759 -0.0550379
16266 10.0579 1.90499 7.45828 0 0 0 -0.163023 0.602323 -0.976127
25243 7.83076 7.51751 0.00516868 0 1 0 1.18702 -0.157063 -0.185288
11643 14.1684 4.20831 0.0757413 0 1 0 1.08437 0.639807 -0.51859
41267 13.3533 0.996978 0.121847 0 1 1 -1.14621 -1.5985 1.40005
18482 8.05317 7.52768 3.59113 0 0 0 0.0666793 -1.8885 1.67046
3071 8.35466 7.63745 6.92881 0 0 1 -0.104709 -0.703991 -0.47953
14876 14.9008 0.112108 6.94463 0 0 0 -2.10671 0.885351 -1.39455
44771 8.91138 1.34195 0.0636454 1 0 1 0.967232 -2.45566 1.35787
581 5.3345 15.0043 2.53341 0 0 0 0.656285 -2.35948 -0.395098
17888 4.48493 8.25851 6.1301 0 0 0 0.321524 0.496924 -1.07822
41785 1.44599 14.6151 0.411526 1 1 1 -0.947556 0.0457756 1.25484
34916 1.99421 14.5871 2.89149 1 0 0 -0.73884 -0.005017 0.95639
54833 0.86164 8.44426 6.32893 1 1 1 0.406476 -0.580519 -1.23521
24656 2.20593 8.29441 2.3714 0 1 0 -1.09961 -0.00742261 0.189575
48479 2.79813 13.7428 0.470133 1 0 0 0.292127 0.0940016 -1.71955
45228 4.04003 14.4444 5.94113 1 0 1 0.428144 0.817376 0.727414
14858 5.48867 8.01352 1.81234 0 0 0 -0.858843 -0.878965 -1.99702
6711 3.95702 13.5696 2.34434 0 0 1 -0.184202 0.23522 -0.525862
44642 1.48013 8.27948 0.279119 1 0 1 0.337153 1.77286 1.53451
17823 3.04149 8.01885 4.97027 0 0 1 -0.0189745 -0.766101 0.703423
11629 2.60784 11.0167 1.11383 0 1 0 0.466 1.05202 -1.0953
44871 2.47543 8.57979 6.61315 1 0 1 -0.330836 -0.248998 0.22304
54295 3.05148 9.96724 2.70252 1 1 1 -0.599724 1.65138 0.329012
6624 2.44277 9.19947 3.84176 0 0 1 0.803871 -0.111059 1.57968
44831 1.1009 9.16943 2.02358 1 0 1 -1.41103 -0.65041 -1.75578
18376 7.20782 8.83166 2.08133 0 0 0 1.54159 1.78304 -0.393888
24934 4.2055 8.89364 2.46054 0 0 0 0.0418836 -1.14995 0.165339
11053 4.70484 9.39387 0.817998 0 1 0 -1.92517 -1.83574 0.135871
27669 1.98387 12.0128 4.82905 1 0 0 -1.79183 -0.21072 0.475126
1039 2.33463 9.41573 1.14653 0 0 0 -0.0930096 -1.02224 -0.239681
2377 3.21376 11.1522 4.36937 0 0 1 -0.455177 -0.926952 -1.37357
3652 6.16224 10.2081 5.31496 0 0 1 -0.0290124 0.501513 -0.609702
1353 2.50935 10.6228 6.15176 0 0 0 0.777312 0.827982 -0.191087
15490 1.34724 11.9606 1.73409 0 0 0 0.281353 0.415648 0.0689605
39424 4.92215 11.8919 2.47576 0 1 0 1.3254 -0.583188 -0.200591
28414 3.41207 11.7226 2.68754 0 0 0 0.495823 -0.442732 1.20258
24740 0.802403 8.78344 3.97595 0 1 0 -0.470275 -0.189771 -1.21654
15063 3.35895 14.7121 1.48503 0 0 0 -0.0722378 1.2068 -0.607351
17978 5.09592 11.791 0.172329 0 0 0 -1.18577 -0.0726905 -0.189722
28581 5.80252 8.88321 3.53665 0 0 0 0.122042 0.532431 0.290331
3426 6.17386 11.5256 4.38186 0 0 1 1.36231 0.722039 -0.82464
1367 5.67417 13.7871 1.50442 0 0 0 -2.07666 -0.562815 0.386063
439 4.16986 10.795 1.51274 0 0 0 -0.323369 -0.995589 -1.05536
29287 3.14917 10.6984 7.62959 0 0 0 2.31625 0.441642 3.04806
45257 4.60968 7.82149 4.01091 1 0 1 -1.97437 -0.808245 0.482963
48074 3.30087 13.4878 3.4959 1 0 1 0.274323 0.391482 0.634465
2032 2.73444 13.087 5.81977 0 0 0 -2.03757 -0.893217 -0.0985729
47932 5.18629 11.8155 5.70338 1 0 1 -0.0289701 0.0181391 -0.350784
42262 1.62565 11.9713 6.50305 1 0 0 2.1242 0.642777 -0.288518
3633 4.69728 10.1019 5.38906 0 0 1 1.21578 1.05695 -0.114008
6168 4.69581 10.7025 4.1406 0 0 1 -2.59749 0.509398 -0.0342297
200 3.58576 11.5066 5.77683 0 0 0 -0.250976 1.03339 -1.1538
16916 3.98426 12.9965 5.08035 0 0 1 -0.436583 0.19341 -0.979987
8346 1.61996 13.5374 7.18209 0 0 0 -0.580661 0.307924 2.04338
44668 2.06148 11.1958 3.37921 1 0 1 0.108465 1.4709 1.13888
1448 2.80042 14.0382 7.34604 0 0 0 0.0198086 -0.0596583 -0.113469
4755 5.57521 13.5571 3.50358 0 0 0 -0.673883 -0.0685924 0.528809
4020 6.1665 10.5157 3.51893 0 0 0 -0.725728 -2.80607 -0.995332
47877 0.165011 14.5968 6.143 1 0 1 0.798208 0.894322 -0.116478
15546 2.82226 12.3134 1.18052 0 0 0 -0.23388 -0.750204 1.07046
24747 1.83713 9.10464 5.08849 0 1 0 1.17544 0.381777 1.2596
6967 7.24677 13.318 4.71223 0 0 1 0.0294322 -0.279603 -0.16028
51249 6.06662 10.864 1.29055 1 1 1 0.517971 0.316498 -0.663669
28485 3.94608 7.83213 0.42464 0 0 0 -0.395985 0.156117 -0.241282
31705 0.772759 12.9791 5.58263 1 0 0 0.777987 -0.730305 -0.918027
15305 4.55355 13.0367 0.97766 0 0 0 -1.19081 -0.997404 -0.255164
766 5.12461 12.2869 4.19321 0 0 0 -0.384803 -0.194262 -0.486942
39246 6.39548 9.31453 6.86998 1 1 0 0.453614 1.61202 0.911102
14462 7.62386 10.7568 6.98784 0 0 0 0.879551 -1.32625 -0.0733187
4208 4.00951 12.6325 7.03145 0 0 0 0.634951 -0.404463 -0.453921
42042 5.71968 15.241 5.7398 1 0 0 -0.558054 -0.760671 -0.469934
28416 5.70152 8.54912 4.99632 1 0 0 0.909157 0.259897 -0.140658
7997 7.16419 8.83289 4.05254 0 1 0 2.16651 0.121156 -0.194126
969 2.12971 13.2343 2.62637 0 0 0 -0.099842 1.10148 -0.566939
3783 0.373856 12.4401 4.17895 0 0 1 -1.66571 -0.587085 0.350073
24914 0.902763 13.7339 1.66531 0 1 0 -0.974104 0.714998 0.584338
20564 6.84642 7.90207 6.19138 0 0 1 1.45617 -2.22824 1.17233
24719 6.75399 11.671 6.09346 0 1 0 -0.0945458 -1.20346 0.703757
42126 4.74509 9.38947 6.71756 1 0 0 0.816496 -0.497679 1.83555
13955 3.69179 9.50949 4.42955 0 1 1 1.24574 0.176871 -1.84455
28232 1.44197 10.6935 1.50693 0 0 0 -0.0671085 -0.867648 0.887927
16886 4.09343 14.6368 4.07307 0 0 1 -0.0012848 -0.963178 0.649501
7532 1.19308 13.3688 3.83603 0 0 0 -0.191791 -0.421123 0.29993
18511 6.32662 11.7765 2.75357 0 0 0 1.49595 -0.923917 0.505422
276 5.59844 9.60086 2.10651 0 0 0 0.201732 -0.739183 -0.395341
44760 6.64133 13.7707 2.76652 1 0 1 0.989714 1.56421 0.819535
18239 1.53172 10.0139 6.87285 0 0 0 -0.519595 -0.785855 -0.29164
710 7.20906 9.5905 0.842267 0 0 0 0.16288 1.62626 -1.79041
3643 5.73287 14.8656 4.41462 0 0 1 0.0698276 -0.529209 0.740808
2386 5.91498 13.3531 5.37214 0 0 1 0.140957 -1.53484 -0.516677
14049 6.74453 12.4784 1.14078 0 1 1 -0.807086 0.603299 0.0771693
48221 0.721485 10.4331 3.9472 1 0 1 0.138535 0.551113 0.932114
27759 7.31488 14.6336 5.58888 0 0 0 0.561536 -1.92863 -0.465983
45239 0.677214 11.0243 5.22531 1 0 1 0.789282 -0.817834 -0.0792728
14596 0.608675 12.6332 0.0679491 0 0 0 -0.612444 0.180217 -1.62969
4433 1.48517 14.1894 4.79211 0 0 0 -0.931964 0.385439 -0.0281421
3741 0.00769245 10.2088 2.15686 0 0 1 -2.26063 -1.16186 -0.831965
650 6.38387 8.43541 0.840895 0 0 0 -0.712476 -1.31397 -0.477469
4034 5.39386 13.782 6.52706 0 0 0 1.11664 -0.159107 1.15006
35879 6.07142 15.0087 7.40934 1 0 0 0.912587 -0.419253 0.706633
14307 7.2932 13.3199 0.15619 0 1 1 -0.0354289 -1.23043 0.411439
678 6.59184 12.418 7.42578 0 0 0 -1.32367 0.268003 -1.62638
3660 0.877383 9.76622 0.298443 0 0 1 1.48154 1.17503 -2.26245
7381 5.81485 11.0243 7.31627 0 1 0 0.360078 -1.21104 -0.471261
42388 0.0670795 13.0085 7.59732 1 0 0 -1.77455 0.563237 1.64106
1645 4.40891 10.7675 7.13822 0 0 0 1.58498 0.0679417 -0.0825626
24326 0.0594478 10.9397 0.29859 0 1 1 -1.78384 0.0742777 -1.15124
2800 7.04524 14.5733 1.3692 0 0 1 0.589341 1.37221 -0.178745
4350 2.48136 15.2433 5.59843 0 0 0 0.668407 0.859162 -1.18423
12230 7.55006 10.3658 5.00192 0 1 0 -0.0570464 -1.312 -0.90085
47078 61.2488 8.70835 7.58041 0 0 0 -1.27427 0.495188 -0.891954
14040 4.37494 14.0724 7.58592 0 1 1 2.39243 0.923971 -1.14972
14937 15.1953 9.20164 1.12288 0 0 0 -0.942508 2.6856 -0.556848
17565 10.2006 7.71593 3.40333 0 0 1 -1.58492 0.859938 -0.935181
33892 7.75919 11.3278 1.93417 1 0 1 0.956216 -1.20892 0.300322
636 7.72293 15.2166 4.19989 0 0 0 1.88528 0.776036 -0.946084
45716 14.7593 13.6687 0.368698 1 0 0 0.480437 1.56146 1.29786
27995 8.28121 7.82381 1.91637 1 0 0 -0.703036 0.104788 -0.227153
266 9.70537 13.8686 0.440767 0 0 0 -0.834181 0.501185 1.75328
3179 12.3359 8.13621 6.20703 0 0 1 -0.605928 -0.284745 -1.7122
37615 7.90681 15.1276 0.166766 1 0 1 2.191 -0.340251 -0.0856374
24911 9.11676 8.38947 0.88405 0 1 0 1.13547 -0.327978 1.43673
25053 12.2257 8.45938 0.714023 0 1 0 1.3392 1.71729 -0.201709
12189 10.9209 7.92663 0.541648 0 1 0 1.95388 0.376724 -0.883105
6839 14.8538 14.9298 1.82522 0 0 1 -0.992664 -0.843664 0.616416
17429 13.745 9.19658 0.129811 0 0 1 0.52339 0.404166 -0.407427
11063 8.99103 8.69848 3.7346 0 1 0 1.2692 -0.44667 1.6449
18106 8.43174 9.68976 2.17658 0 0 0 -0.44349 -0.464213 2.26769
27900 13.1555 9.21289 6.74309 0 0 0 -1.26449 1.45523 1.12096
24543 11.0717 8.67637 2.82676 0 1 0 1.23422 -0.0665484 0.605945
14791 12.9642 13.6459 4.94622 0 0 0 -0.394124 0.124702 0.105176
4016 8.28241 12.3551 3.78364 0 0 0 -0.946291 0.182177 -1.71206
13965 8.73254 12.3932 0.566182 0 1 1 0.324995 -0.139516 -0.782171
20941 10.9052 13.3994 2.60216 0 0 0 0.41324 -0.859255 -0.178934
30246 14.3816 13.151 6.81304 0 0 1 -0.0422192 1.78026 1.37334
52073 8.16798 12.0462 5.16875 1 1 0 -1.08968 -1.38689 1.77068
11127 14.3458 10.0961 1.65644 0 1 0 -2.40067 -1.73003 -0.125512
11556 8.09129 8.98248 5.7959 0 1 0 1.42911 0.786578 0.463132
43176 12.0113 12.641 4.26869 1 0 0 0.255311 0.567093 -0.0829818
3350 9.70243 11.4952 4.31387 0 0 1 1.23449 -0.302616 -0.371991
3717 8.83901 11.3469 6.74651 0 0 1 1.63626 1.20043 1.96085
23395 12.9575 15.1566 3.25339 0 0 1 -0.497118 0.0264303 2.93965
42569 9.06489 11.6514 2.45238 1 0 0 1.82767 -0.221942 -0.251372
14579 10.1351 9.57537 1.04026 0 0 0 1.26676 1.30726 0.255738
1217 9.90654 9.8609 6.24361 0 0 0 0.21974 -1.9503 0.671633
11196 8.71405 10.5638 0.877924 0 1 0 -0.127859 0.304974 -0.987933
42853 8.27297 12.5538 7.53645 1 0 0 -1.39343 -0.484502 0.797432
1846 13.5676 13.291 1.36182 0 0 0 -0.863534 0.656129 -0.266163
17970 11.3245 11.3457 0.645078 0 0 0 0.877299 0.437804 0.690016
14150 9.99082 8.30361 6.5232 0 1 1 -1.54295 -2.42131 0.959324
3453 13.4002 15.2579 0.825095 0 0 1 -0.86892 0.19232 0.574005
14701 9.8177 10.2467 2.9819 0 0 0 2.15945 0.897854 -0.449799
44886 10.9934 9.9037 4.21328 1 0 1 0.660172 -1.51236 0.266189
3813 9.60838 12.9886 5.58328 0 0 0 -1.85711 0.538898 1.14522
20410 8.32263 13.2345 2.06045 0 0 1 -0.596611 0.50638 0.793115
3297 9.08822 9.95873 7.53674 0 0 1 0.577421 0.184737 0.233968
20190 11.9974 11.7016 2.14691 0 0 1 0.11156 0.4164 -0.507234
34426 8.95616 13.985 4.32465 1 0 1 -0.267165 -0.550403 0.762852
584 9.14355 8.70433 5.02444 0 0 0 -0.982951 1.46947 0.68006
277 9.25585 9.87305 4.62929 0 0 0 -2.32128 -0.687786 2.06633
3665 8.6306 15.2519 1.75135 0 0 1 0.00719438 1.23693 0.298057
17878 14.645 12.1223 1.94729 0 0 0 0.862738 -0.37914 0.223376
20143 10.3713 12.4988 6.80233 0 0 1 0.902861 0.929173 -1.18638
42634 9.49211 14.0957 2.15385 0 0 0 -0.538252 0.339247 1.87923
1080 7.68239 10.4758 3.54372 0 0 0 0.684891 -0.582972 0.00248704
15028 10.2295 12.4613 1.31794 0 0 0 -0.671513 0.662155 -1.99778
23872 13.779 8.74773 2.4148 0 1 1 0.0327258 1.153 0.239262
44378 12.3992 10.1423 0.726792 1 0 1 1.33503 0.894439 -0.661337
14053 14.3123 8.53919 4.0366 0 1 1 -0.856025 -0.742408 -0.360626
17955 9.93363 12.7983 3.53672 0 0 0 -1.47015 1.90594 1.14331
123 10.6329 11.4532 5.18323 0 0 0 -0.12461 0.0865845 1.45242
20737 11.3333 9.44151 1.50082 0 0 1 -0.858367 -0.64737 0.120836
14737 11.1601 8.64143 4.99567 0 0 0 0.917439 0.112566 0.228085
54620 11.0157 11.8981 3.27998 1 1 1 -1.85595 0.0718067 0.167899
24836 13.2983 10.5062 2.77732 0 1 0 0.260687 -0.530898 0.382156
6474 12.6047 8.10414 4.15329 0 0 1 2.77394 0.578699 0.146501
23766 9.09241 14.4312 6.0603 0 1 1 -0.124492 -0.174191 0.0269007
6088 13.3127 12.1505 3.34412 0 0 1 -1.23887 -0.555962 1.32877
24678 13.3029 9.37066 3.94856 0 1 0 -1.39531 -0.762408 0.36503
28429 10.3026 11.2566 1.77146 0 0 0 0.527111 0.530569 -1.95071
3390 13.7678 13.8263 3.02915 0 0 1 -1.52394 -1.20306 0.565223
30627 12.3267 13.1328 2.73488 0 0 1 1.10941 -1.35401 -0.00996697
30965 13.0618 11.4809 5.13871 0 0 1 -0.729084 -0.500116 -0.619689
3624 11.6537 9.74584 5.98304 0 0 1 -0.837138 1.3681 -2.11812
41893 11.786 9.9996 2.82414 1 0 0 -1.04975 -1.77233 0.178091
32101 11.8989 10.7574 4.28824 0 0 0 1.91706 -1.20402 -0.452176
10246 13.6406 7.62815 0.953428 0 0 1 -0.0687243 -1.48638 -0.602521
48134 11.4077 14.6889 3.19589 1 0 1 -0.374367 -0.448867 0.536077
16018 13.1323 10.1745 5.42214 0 0 0 -0.423178 0.363434 -0.592398
12000 13.4338 11.5262 1.26566 0 1 0 0.393462 0.950257 -1.84138
37 14.1866 7.98846 5.38974 0 0 0 -0.710801 0.420552 -0.8854
14724 12.3924 10.7556 7.16917 0 0 0 0.36142 0.858181 -0.302804
12086 14.473 10.7481 7.17556 0 1 0 2.89013 1.4962 -1.39499
14569 8.08727 13.1885 6.14207 0 0 0 -0.779295 -0.847768 0.109025
14587 11.8772 12.4962 6.25315 0 0 0 0.667351 0.477652 0.165548
89 8.09665 14.084 3.13803 0 0 0 0.313588 -1.01283 -0.778373
34561 10.977 13.6304 5.11754 0 0 1 -0.891985 -0.00368258 -0.568351
4128 12.0462 14.0125 6.14275 0 0 0 -1.78394 0.169082 -0.597586
3923 13.3773 11.6058 6.78121 0 0 0 -0.566981 -1.85761 -0.0125111
14349 12.0995 13.1126 1.2014 0 1 1 -1.08904 0.268668 -1.13591
6504 14.2869 10.8287 4.15992 0 0 1 -2.35704 0.765123 0.460945
42324 7.93969 14.4783 7.21651 1 0 0 0.239867 0.616605 -1.41082
17710 14.2648 13.9693 5.84536 0 0 1 -0.780183 -1.10587 -0.503896
14159 14.9151 11.9601 5.73823 0 1 1 0.597472 -0.904449 -1.04887
25 10.501 14.4441 6.89882 0 0 0 0.192077 -1.30364 -0.651648
4229 9.54196 13.3378 7.52402 0 0 0 -1.15306 0.627105 -0.680261
15027 14.1309 12.7834 4.65019 0 0 0 0.522576 0.937464 -1.29796
32937 10.3626 15.1085 4.56937 0 0 0 0.888202 0.541063 -0.581158
6014 10.8962 14.5274 1.0284 0 0 1 1.03025 -0.721356 0.848247
4756 10.7868 10.9268 7.01154 0 0 0 -0.50525 -0.567837 -0.784643
31122 14.4088 9.20889 6.12516 0 0 1 -0.0501423 -0.519868 -2.12961
294 13.4995 14.995 4.64176 0 0 0 -0.2314 1.03396 -0.361383
31460 15.261 9.4198 4.67107 0 0 0 -0.533435 -0.0576088 -1.67207
27003 14.4722 10.6304 0.00305919 0 1 1 0.125241 -1.3853 -1.78593
14946 13.9938 14.8125 7.17823 0 0 0 0.14421 -0.109156 -0.843353
4626 10.8355 9.39382 7.58671 0 0 0 1.32924 -1.10837 2.24846
17375 12.4456 13.1226 7.13613 0 0 1 1.27821 -1.94084 -1.43681
27724 12.1255 14.9656 1.78264 1 0 0 1.39487 -1.1443 -1.93865
11346 14.8996 14.4623 3.0788 0 1 0 -0.738926 -0.581681 1.32158
5770 15.0078 10.3684 5.85033 0 0 1 -0.685317 -1.72929 0.986251
11317 5.24497 3.62399 7.77451 0 1 0 1.45994 -2.70738 1.60972
13531 2.85506 6.58005 7.79625 0 1 1 -0.76701 1.07593 -0.832568
31784 0.312909 6.44037 12.1475 1 0 0 1.03685 -0.14101 -1.72658
3237 3.31858 3.3623 8.03247 0 0 1 -1.2524 -0.682737 -0.141448
32160 4.41125 2.23348 8.40904 0 0 0 1.52239 1.67744 1.3303
11901 3.45337 0.794791 11.0118 0 1 0 0.0275268 -0.226438 0.562655
44145 1.25481 7.23194 14.2779 1 0 0 0.415317 -1.30169 -0.4128
12094 7.29152 0.545885 8.00198 0 1 0 0.485334 -0.115164 -1.28895
12093 1.24519 0.734179 9.39066 0 1 0 -0.213853 0.569275 0.146766
15649 4.15192 0.853581 13.0665 0 0 0 -0.726525 -0.164675 -0.366552
43538 1.21475 0.724943 14.8094 1 0 0 -1.11452 1.36453 -0.312658
16619 2.60658 1.78448 12.2211 0 0 0 -2.01511 0.255483 0.110354
11601 1.49603 0.586617 12.215 0 1 0 -1.06997 1.72176 -0.713006
448 5.27703 1.70541 13.169 0 0 0 1.05452 -1.24622 0.092553
17626 6.85379 3.15241 7.80388 0 0 1 0.886565 -0.625107 -0.417693
14266 3.36719 1.39372 8.10067 0 1 1 0.602049 -0.394162 -0.408193
15751 2.55727 0.648642 14.2263 0 0 0 -0.147809 -0.172023 -0.197636
45899 5.30043 1.36675 9.09334 1 0 0 -1.08232 0.381817 -2.14949
24594 4.57644 2.94925 12.1264 0 1 0 0.861525 0.513318 0.217127
29974 2.61822 2.62366 15.0294 1 0 0 1.09624 0.327906 1.66463
45463 2.96208 2.23666 9.38254 1 0 0 -0.297646 1.01285 -0.0729307
14775 7.6799 4.45688 7.7053 0 0 0 1.184 2.04976 -0.691174
14223 1.90856 1.87336 10.6124 0 1 1 0.16421 -0.706095 -0.634341
12275 3.76549 6.01645 11.2338 0 1 0 -1.69405 3.39022 0.634943
52970 3.7532 2.39519 13.6914 1 1 0 0.389846 0.492891 0.452479
15218 3.45978 5.35775 8.26668 0 0 0 0.133822 -0.988717 -0.0958204
25961 6.55968 5.19567 12.7044 0 1 0 -1.69411 0.408023 0.920613
11618 6.14486 4.58554 8.88816 0 1 0 0.14244 1.71637 -2.0939
2065 2.00928 0.3364 10.7234 0 0 0 2.04115 -1.62288 0.194876
24334 3.76732 3.40623 9.53298 0 1 1 -0.18793 0.412648 0.37928
43051 3.32108 4.08861 14.1187 1 0 0 -0.43017 1.09688 -0.918235
24620 4.75786 4.40814 12.4758 0 1 0 1.07955 0.752409 -1.20031
11733 1.71675 5.34097 11.6257 0 1 0 -0.706225 -0.675037 -0.783206
1264 6.18732 1.44294 15.0437 0 0 0 -2.13898 1.24816 1.46749
10824 0.843053 5.40145 13.6537 0 0 1 0.10283 -0.418098 -0.829529
46920 4.72226 4.24129 10.617 1 0 0 0.855742 0.456453 0.771203
42405 1.40775 0.600549 7.72291 1 0 0 -0.457037 -0.606846 -0.169646
24863 3.77594 6.59805 12.6184 0 1 0 1.66687 1.85593 2.39977
53807 6.64945 3.07005 10.7933 1 1 0 -0.248527 0.226562 0.295418
1223 2.69171 4.76155 13.0439 0 0 0 0.392979 0.0794025 0.584362